<?xml version="1.0"?>
<VTKFile type="UnstructuredGrid" version="0.1" >
	<UnstructuredGrid>
		<Piece NumberOfPoints="171" NumberOfCells="284">
		<Points>
			<DataArray type="Float64" NumberOfComponents="3" format="ascii">0.0 0.0257 0 0.09 0.0257 0 0.057 0.0315 0 0.09 0.0315 0 0.0 0.0397 0 0.047 0.0397 0 0.047 0.0315 0 0.005 0.0318 0 0.006562500000000001 0.0318 0 0.008125 0.0318 0 0.009687500000000002 0.0318 0 0.01125 0.0318 0 0.0128125 0.0318 0 0.014375 0.0318 0 0.0159375 0.0318 0 0.0175 0.0318 0 0.0190625 0.0318 0 0.020625 0.0318 0 0.0221875 0.0318 0 0.02375 0.0318 0 0.0253125 0.0318 0 0.026875 0.0318 0 0.0284375 0.0318 0 0.003916666666659756 0.0397 0 0.007833333333317991 0.0397 0 0.01174999999997365 0.0397 0 0.01566666666662932 0.0397 0 0.01958333333328363 0.0397 0 0.02349999999993999 0.0397 0 0.02741666666661846 0.0397 0 0.03133333333329332 0.0397 0 0.03524999999996795 0.0397 0 0.03916666666664304 0.0397 0 0.04308333333332174 0.0397 0 0.047 0.03696666666667615 0 0.047 0.03423333333333965 0 0.05033333333332567 0.0315 0 0.05366666666665809 0.0315 0 0.06066666666666094 0.0315 0 0.06433333333331255 0.0315 0 0.06799999999996115 0.0315 0 0.07166666666661425 0.0315 0 0.07533333333328303 0.0315 0 0.07899999999996837 0.0315 0 0.08266666666664438 0.0315 0 0.08633333333331947 0.0315 0 0.09 0.02860000000000678 0 0.08608695652174432 0.0257 0 0.08217391304349878 0.0257 0 0.07826086956524379 0.0257 0 0.07434782608700297 0.0257 0 0.07043478260874152 0.0257 0 0.06652173913049032 0.0257 0 0.06260869565224572 0.0257 0 0.05869565217399652 0.0257 0 0.05478260869574867 0.0257 0 0.05086956521749969 0.0257 0 0.04695652173924789 0.0257 0 0.04304347826098914 0.0257 0 0.03913043478271801 0.0257 0 0.03521739130444677 0.0257 0 0.03130434782617299 0.0257 0 0.02739130434790069 0.0257 0 0.02347826086963323 0.0257 0 0.01956521739135066 0.0257 0 0.01565217391308921 0.0257 0 0.01173913043480605 0.0257 0 0.007826086956544603 0.0257 0 0.003913043478267236 0.0257 0 0.0 0.02919999999999119 0 0.0 0.03269999999998236 0 0.0 0.03619999999998982 0 0.0353939736606383 0.03248340533012372 0 0.04106552786889597 0.03270385530253585 0 0.005259848196207041 0.03554511679029005 0 0.01397627478925514 0.03542395863816397 0 0.02141550856085642 0.03625150983535839 0 0.02605451563053371 0.03590596136220018 0 0.008872587446948835 0.03490940468925342 0 0.01671875 0.03497258202588039 0 0.03034971961539086 0.03555212842372281 0 0.00578125 0.02851394720939796 0 0.008513512396465162 0.02892042457666988 0 0.01366375596716309 0.02841893509625782 0 0.01634008776955029 0.02890462030007611 0 0.02148026071400476 0.02841918820968809 0 0.0247231965236264 0.0285221561977681 0 0.03221970338109408 0.02985386775606841 0 0.02755429832405776 0.02864800519732177 0 0.002554570415122126 0.03445231904082002 0 0.04386976728960795 0.03551939233419893 0 0.0122206974948651 0.03426346803623172 0 0.01995866507765492 0.03445158714204522 0 0.02319719266726049 0.03424420617471653 0 0.02758746473697784 0.03407508253492312 0 0.04352391408650401 0.0296217547151351 0 0.03131088155699221 0.03273594198559431 0 0.003012386473089433 0.02922422762984717 0 0.03835785180883956 0.03011536356813004 0 0.03824332759343881 0.03567555411731598 0 0.005894378166410774 0.03342227662000155 0 0.01515625 0.03367486585081091 0 0.03375065411316157 0.03603190198727774 0 0.01860935658119527 0.03599075383432618 0 0.01119097040603701 0.03626308592057276 0 0.01205288771801564 0.03000212654635722 0 0.01986568315421855 0.03000323112551739 0 0.00729699552338871 0.0302165257622198 0 0.01511950520675159 0.03020337540651814 0 0.02298028847518531 0.03004288435578692 0 0.02610140262310238 0.03012887939769189 0 0.04887368590837139 0.0286952051713498 0 0.04449184184900159 0.0327156671370419 0 0.02520401380002085 0.03438543800888966 0 0.01046875 0.03334320919365454 0 0.01828125000000001 0.03334250919337721 0 0.02145662375796741 0.0334518459478997 0 0.002681507739249017 0.03169202199411462 0 0.02972818462530866 0.02991702656450574 0 0.007343750000000001 0.03325555876638032 0 0.01355077625139352 0.033243832369568 0 0.0240215350403954 0.03641126247615709 0 0.00890625 0.03315676624713294 0 0.05230986552582208 0.02865142040429615 0 0.01671875 0.03315260484030226 0 0.01046875 0.03036318413247917 0 0.01828125000000001 0.03036361343415252 0 0.08435949181946636 0.02867215812891714 0 0.00578125 0.03038705513964308 0 0.01359375 0.03038708317966113 0 0.02142774646868173 0.03041306073819848 0 0.02457347752438282 0.03045878399024939 0 0.0558813543992593 0.02865658953590949 0 0.01663566859526038 0.03061432182814935 0 0.008818351583970775 0.03062002689427377 0 0.08060460129357457 0.02864311588251781 0 0.05955872814869154 0.02865755366354617 0 0.03530927796284444 0.02892490349313252 0 0.07684110504650356 0.02864515009014987 0 0.07307617451257216 0.0286506194098546 0 0.06931100493083603 0.02865491695130467 0 0.0655457955078054 0.02865727489944537 0 0.04152247449426986 0.03700449801162509 0 0.06254264386174323 0.02920296571259831 0 0.02947743923245671 0.03345548199289409 0 0.002919843187767863 0.03731295644814687 0 0.02765625000000001 0.03039866902038529 0 0.02819243363822594 0.03721690496220414 0 0.04090584903364745 0.02813288148932748 0 0.03828713517905031 0.03274528492642192 0 0.04587951999902248 0.02824339197729699 0 0.01635936828245039 0.03734248972302916 0 0.008143052009517916 0.03709145806066382 0 0.08725342089851534 0.02889532144257233 0 0.02590204570739973 0.03297149520129131 0 0.01853077882370224 0.02818177551157235 0 0.01071068724549909 0.02818411172529401 0 0.02964230031269152 0.02743813441985703 0 0.0444951150234399 0.03777811140250003 0 0.02550331827782759 0.03805918389151809 0 0.001738259030371149 0.02744999999999559 0 0.00417846827572011 0.0332713582837832 0 0.02442970263984299 0.03294305258771802 0 0.0120419259290276 0.03283856498509821 0 0.01987680776712447 0.03296918845666442 0 0.02300420381301418 0.03284782094206685 0 0.005614548678694112 0.03786990625982015 0 0.0137886560288691 0.03768590685635318 0 0.004297322039902584 0.03042375809866119 0 0.03318535651332388 0.02746328550712191 0 0.007102723163816913 0.03484476298531784 0 </DataArray>
		</Points>
		<Cells>
			<DataArray type="UInt32" Name="connectivity" format="ascii">21 94 22 80 102 96 1 153 46 30 102 80 73 95 148 27 103 151 22 96 118 25 104 152 31 99 102 27 28 76 28 121 76 34 35 90 62 86 88 73 148 98 91 114 104 92 115 103 74 100 161 59 137 98 31 32 99 72 96 102 75 79 101 6 95 112 1 47 153 67 82 156 65 84 155 59 60 137 7 100 8 53 136 143 78 104 114 79 103 115 27 76 103 73 142 90 30 80 147 72 87 96 53 54 136 68 97 81 73 99 142 73 112 95 22 144 96 62 63 86 13 101 14 58 95 150 90 142 158 5 158 33 86 110 88 26 27 151 80 94 147 24 25 152 53 143 141 3 46 153 21 154 94 4 145 71 52 53 141 72 102 99 75 101 120 6 150 95 11 12 105 16 17 106 35 112 90 57 58 150 54 132 136 94 154 113 30 31 102 54 55 132 85 109 86 83 108 84 81 107 82 72 137 87 3 153 45 66 67 156 68 160 97 69 117 97 64 65 155 63 85 86 74 161 89 65 83 84 67 81 82 52 141 140 51 52 140 8 9 107 13 14 108 18 19 109 77 147 94 6 36 111 20 21 110 80 144 94 4 23 145 73 90 112 34 90 158 142 33 158 69 70 117 63 64 85 75 120 91 65 66 83 67 68 81 50 51 139 51 140 139 93 121 113 70 71 89 75 151 79 72 98 137 73 98 149 22 118 146 55 56 123 6 112 35 49 50 138 79 151 103 78 152 104 77 94 113 73 149 99 8 100 119 50 139 138 81 97 168 76 116 92 76 93 116 22 94 144 55 123 132 10 114 11 15 115 16 17 116 18 87 157 118 29 30 147 48 49 135 66 156 83 64 155 85 76 92 103 75 91 104 49 138 135 0 160 68 59 98 148 56 57 111 47 48 127 87 118 96 32 142 99 58 148 95 36 37 123 13 120 101 14 101 124 8 119 9 71 145 89 72 149 98 87 169 157 2 38 136 23 24 166 77 113 121 25 26 167 12 120 13 2 132 37 74 89 145 48 135 127 36 123 111 44 45 127 72 99 149 78 122 119 2 136 132 7 161 100 43 44 135 7 168 117 83 156 105 85 155 106 28 29 159 44 127 135 14 124 15 42 43 138 37 132 123 10 11 125 15 16 126 9 122 10 32 33 142 61 62 157 56 111 123 41 42 139 12 129 105 11 105 125 17 130 106 16 106 126 43 135 138 7 8 128 12 13 129 17 18 130 19 20 131 40 41 140 21 22 146 39 40 141 42 138 139 38 39 143 7 117 161 38 143 136 78 114 122 79 115 124 80 96 144 41 139 140 58 59 148 76 121 93 40 140 141 93 113 162 39 141 143 9 10 134 14 15 133 70 89 117 6 111 150 75 104 167 8 107 128 13 108 129 18 109 130 19 131 109 9 134 107 14 133 108 81 168 128 20 110 131 21 146 110 0 69 160 60 61 169 93 162 165 15 124 115 10 122 114 78 119 170 11 114 163 16 115 164 17 164 116 18 116 165 47 127 153 77 159 147 20 154 21 57 150 111 9 119 122 5 34 158 25 167 104 78 170 152 62 88 157 28 159 121 88 146 118 12 163 120 69 97 160 79 124 101 11 163 12 16 164 17 18 165 19 61 157 169 84 133 126 82 134 125 19 162 20 45 153 127 10 125 134 15 126 133 88 118 157 74 152 170 74 145 166 20 162 154 81 128 107 87 137 169 83 129 108 85 130 109 77 121 159 19 165 162 7 128 168 84 126 155 82 125 156 91 120 163 97 117 168 29 147 159 83 105 129 85 106 130 91 163 114 92 164 115 92 116 164 93 165 116 60 169 137 74 166 152 82 107 134 84 108 133 75 167 151 74 170 100 86 131 110 86 109 131 88 110 146 106 155 126 105 156 125 100 170 119 89 161 117 23 166 145 113 154 162 26 151 167 24 152 166 </DataArray>
			<DataArray type="UInt32" Name="offsets" format="ascii">3 6 9 12 15 18 21 24 27 30 33 36 39 42 45 48 51 54 57 60 63 66 69 72 75 78 81 84 87 90 93 96 99 102 105 108 111 114 117 120 123 126 129 132 135 138 141 144 147 150 153 156 159 162 165 168 171 174 177 180 183 186 189 192 195 198 201 204 207 210 213 216 219 222 225 228 231 234 237 240 243 246 249 252 255 258 261 264 267 270 273 276 279 282 285 288 291 294 297 300 303 306 309 312 315 318 321 324 327 330 333 336 339 342 345 348 351 354 357 360 363 366 369 372 375 378 381 384 387 390 393 396 399 402 405 408 411 414 417 420 423 426 429 432 435 438 441 444 447 450 453 456 459 462 465 468 471 474 477 480 483 486 489 492 495 498 501 504 507 510 513 516 519 522 525 528 531 534 537 540 543 546 549 552 555 558 561 564 567 570 573 576 579 582 585 588 591 594 597 600 603 606 609 612 615 618 621 624 627 630 633 636 639 642 645 648 651 654 657 660 663 666 669 672 675 678 681 684 687 690 693 696 699 702 705 708 711 714 717 720 723 726 729 732 735 738 741 744 747 750 753 756 759 762 765 768 771 774 777 780 783 786 789 792 795 798 801 804 807 810 813 816 819 822 825 828 831 834 837 840 843 846 849 852 </DataArray>
			<DataArray type="UInt8" Name="types" format="ascii">5 5 5 5 5 5 5 5 5 5 5 5 5 5 5 5 5 5 5 5 5 5 5 5 5 5 5 5 5 5 5 5 5 5 5 5 5 5 5 5 5 5 5 5 5 5 5 5 5 5 5 5 5 5 5 5 5 5 5 5 5 5 5 5 5 5 5 5 5 5 5 5 5 5 5 5 5 5 5 5 5 5 5 5 5 5 5 5 5 5 5 5 5 5 5 5 5 5 5 5 5 5 5 5 5 5 5 5 5 5 5 5 5 5 5 5 5 5 5 5 5 5 5 5 5 5 5 5 5 5 5 5 5 5 5 5 5 5 5 5 5 5 5 5 5 5 5 5 5 5 5 5 5 5 5 5 5 5 5 5 5 5 5 5 5 5 5 5 5 5 5 5 5 5 5 5 5 5 5 5 5 5 5 5 5 5 5 5 5 5 5 5 5 5 5 5 5 5 5 5 5 5 5 5 5 5 5 5 5 5 5 5 5 5 5 5 5 5 5 5 5 5 5 5 5 5 5 5 5 5 5 5 5 5 5 5 5 5 5 5 5 5 5 5 5 5 5 5 5 5 5 5 5 5 5 5 5 5 5 5 5 5 5 5 5 5 5 5 5 5 5 5 5 5 5 5 5 5 5 5 5 5 5 5 </DataArray>
		</Cells>
		<PointData Scalars="T">
			<DataArray type="Float64" Name="T" format="ascii">314239.81439625844 20.0000005892247 181036.8649988305 20.0000005892247 313890.84532681335 256731.40153839567 240087.5169466505 315049.78173888865 315039.27588120406 314675.1220803561 314046.7580369536 313172.33846937615 312070.36942270305 310754.40850509657 309198.41923428595 307407.8656537084 305396.7630565867 303163.8080119863 300703.2950727504 297992.8123052953 295054.49326784257 291856.7809209685 288266.4376039488 313675.4504834618 312713.9821019169 310602.6735765562 307240.4983136042 302422.581485155 296348.2319816113 289102.78246294905 281000.7041185299 272817.5296554955 265173.5390575505 259177.20040914678 255589.67830296062 251300.24710816 218207.888618106 199410.0172440012 160901.96979242205 140781.83383002708 120666.78934082072 100554.69796028972 80444.97929058527 60337.13209767009 40230.66198378796 20125.082461617872 20.0000005892247 21476.019057890742 42932.628322953446 64390.34168906099 85849.72100974474 107311.35288843696 128775.76537241491 150242.84755749637 171708.62849864064 193141.07714046695 214305.0280944542 233805.2847906919 249026.86324520953 260964.07133189356 271141.48375627626 280559.7602632618 289260.15619953425 296846.6860807374 303074.5873518334 307856.8415829932 311248.99400281924 313243.00764468726 314063.3628672791 314293.4520455074 314308.42060076736 314046.1912766979 271613.2053813834 258699.8445665167 313927.4481199161 309619.70986676373 300194.1758736703 292186.6780051585 313154.99209556734 307013.6970586836 283224.60691209626 314021.91182609455 313368.1999339631 310037.51403814787 307530.67695591855 300490.64896951243 294885.8005108942 278673.0006613873 289213.3234032788 314230.8912631224 256077.06853895233 311504.40680136974 303056.07261387643 298030.7428564975 289606.96623779397 249295.27161096665 281085.4902306246 314320.5946865132 263864.5401456355 266251.3723932163 314580.91887000983 309301.69129946176 275769.17841586267 304287.65220608783 311432.1101699112 311773.26273702516 303405.5018400282 314150.5130093635 309245.0179982772 298482.8815061374 292659.3807870077 225439.29929935918 250857.08689016235 294325.737425245 313101.5261344225 305896.43218296324 301308.35873932374 314434.5262156096 284589.8096842313 314423.9165296314 310986.14306346676 295828.5676178824 313956.88653339143 206752.2256605139 307874.07932903507 312935.7174420983 305720.54361860536 30948.466290974207 314479.84921840945 310738.1593041415 301227.3256033365 295797.60079723946 187161.7331730979 307822.108425737 313837.61857025325 51538.38890911755 166980.71987815353 271189.40586139465 72176.73589083918 92824.70136430184 113476.25169795011 134130.85439809415 260763.18467731058 150607.6742025272 285456.5806682617 313867.299958163 289482.26397219737 287647.7847751757 256285.98029333062 265056.5894563967 239363.82278668828 306693.6442734167 312840.1477294067 15080.137886174356 293568.17064311943 304717.6927375909 312135.9872645022 284421.6488355012 257434.01262765325 292839.41857843037 314234.50250506646 314557.9795992223 296463.3587814152 312347.0887350917 303904.6859511248 299046.4100911728 313433.4290706046 309152.4820333398 314515.91465093335 276158.44197032816 313772.0657254146 </DataArray>
		</PointData>
		</Piece>
	</UnstructuredGrid>
</VTKFile>