<?xml version="1.0"?>
<VTKFile type="UnstructuredGrid" version="0.1" >
	<UnstructuredGrid>
		<Piece NumberOfPoints="88" NumberOfCells="154">
		<Points>
			<DataArray type="Float64" NumberOfComponents="3" format="ascii">0.0 0.0 0 0.5 0.0 0 0.5 0.5 0 0.0 0.5 0 0.25 0.25 0 0.09999999999977893 0.5 0 0.1999999999994874 0.5 0 0.2999999999994734 0.5 0 0.3999999999997367 0.5 0 0.5 0.3999999999999999 0 0.5 0.3000000000006934 0 0.5 0.2000000000008322 0 0.5 0.1000000000004161 0 0.3999999999999999 0.0 0 0.3000000000006934 0.0 0 0.2000000000008322 0.0 0 0.1000000000004161 0.0 0 0.0 0.09999999999977893 0 0.0 0.1999999999994874 0 0.0 0.2999999999994734 0 0.0 0.3999999999997367 0 0.3597616399872206 0.3649350730284682 0 0.2226673197328611 0.3803074339856709 0 0.1291186717861388 0.2955933589306475 0 0.1363365316794714 0.1328572324069753 0 0.2747965463281798 0.1224195240525034 0 0.3704543371382342 0.2022716856912087 0 0.3335319338250525 0.2779670708641516 0 0.1719957614071423 0.2233318531316927 0 0.2709968779931501 0.306092089837919 0 0.2284776712550299 0.1825463945944623 0 0.197917657569124 0.3025085436953175 0 0.2998124551930093 0.1996264790439804 0 0.1287329528249638 0.3998157767769842 0 0.3681943457049646 0.0986478720739726 0 0.2156541831691098 0.2212063412047786 0 0.2997953459693511 0.2531419463364575 0 0.2056537753841505 0.2702440773506749 0 0.253119399776325 0.2110826401178123 0 0.2812343962612882 0.2760737059233058 0 0.2321358375225466 0.2888560079394978 0 0.079498814594408 0.2095069366703372 0 0.4152654880621098 0.2883627673542583 0 0.1865025868909945 0.1161568854245358 0 0.3109354735928038 0.3843657639561846 0 0.152483792421158 0.06379342496050228 0 0.3512055162996112 0.4363178863434657 0 0.2759699106839157 0.2304642886840961 0 0.4297117612110947 0.1492109157374259 0 0.06625470703991775 0.3474726270284323 0 0.1815997598730131 0.1747873303322465 0 0.06857685779601994 0.1444958048993339 0 0.3240885907789829 0.1482667589921534 0 0.4306964213681345 0.4061308272821907 0 0.1737634154580784 0.3533482250673808 0 0.2619930777284106 0.4244678094315137 0 0.3179332920329246 0.3257209593162817 0 0.2372022937767284 0.07615101190241251 0 0.1704726791604766 0.2628623597512941 0 0.3672415628225003 0.3097605315163621 0 0.2376726148336953 0.2317378066113683 0 0.2697548479653567 0.252163752117929 0 0.3365654058017964 0.2374327312210907 0 0.1367210724485064 0.1929545963624135 0 0.2691914332795065 0.1680415295503505 0 0.3757336573692643 0.2574233094105088 0 0.4313432165658935 0.2287450698159811 0 0.1262543373348269 0.2429690443869008 0 0.06971902461228947 0.2735651614750201 0 0.2274096161935058 0.253577674043011 0 0.188542495265732 0.4193957047590956 0 0.3093225507159086 0.08072479201929136 0 0.2319635832240878 0.3332098357502613 0 0.2552552626559745 0.2711272049769437 0 0.0762328636495109 0.07352441037776505 0 0.2556482250500688 0.2341497784550027 0 0.4344435767858997 0.06555642321424372 0 0.06441752850540708 0.4355824714944207 0 0.4039077932903731 0.3416628316027081 0 0.120287662900761 0.347672598743103 0 0.3763618475059737 0.1501038110683459 0 0.2677212907903211 0.3581490978841971 0 0.1950011400186773 0.2440982405742726 0 0.3623920946414933 0.04898581746150155 0 0.3025977312729328 0.2916703943840362 0 0.2296283819005753 0.1400171126427519 0 0.2014886119051009 0.197842899417285 0 0.1363385953190739 0.4509587906061001 0 </DataArray>
		</Points>
		<Cells>
			<DataArray type="UInt32" Name="connectivity" format="ascii">10 78 53 73 29 39 23 54 31 26 52 32 35 60 38 23 31 58 24 51 63 24 45 74 36 39 84 24 74 51 32 38 47 2 53 8 55 81 22 9 10 53 26 32 62 57 85 25 2 9 53 24 43 45 29 81 56 44 81 55 21 44 46 40 29 73 43 85 57 4 61 75 30 35 38 30 85 50 44 55 46 32 52 64 25 64 52 43 57 45 41 63 51 10 42 78 27 36 84 4 60 69 32 36 62 32 47 36 21 46 53 18 68 41 31 54 72 44 56 81 21 56 44 26 66 48 24 50 43 10 66 42 36 61 39 27 62 36 4 75 60 25 71 57 32 64 38 43 50 85 40 73 69 26 48 80 28 35 86 22 72 54 22 70 55 8 53 46 14 57 71 18 19 68 18 41 51 29 40 72 10 11 66 28 82 35 23 79 54 35 82 69 26 80 52 30 50 86 6 55 70 31 37 58 30 86 35 23 68 49 35 69 60 23 49 79 15 45 57 17 18 51 0 17 74 26 65 66 15 16 45 31 72 40 11 12 48 4 73 61 7 46 55 14 15 57 7 8 46 27 56 59 21 53 78 34 48 76 0 74 16 31 40 37 6 7 55 28 67 58 34 80 48 28 50 63 28 86 50 33 49 77 19 20 49 37 40 69 37 82 58 13 14 83 26 62 65 1 13 76 1 76 12 27 84 56 22 54 70 11 48 66 29 56 84 5 6 87 3 77 20 3 5 77 28 63 67 25 85 64 30 38 64 25 52 71 29 84 39 23 67 68 37 69 82 33 79 49 28 58 82 34 76 83 27 65 62 21 59 56 42 66 65 23 58 67 20 77 49 12 76 48 47 75 61 19 49 68 6 70 87 24 63 50 14 71 83 27 59 65 30 64 85 33 77 87 41 68 67 17 51 74 38 75 47 16 74 45 33 70 54 41 67 63 34 71 52 29 72 81 13 83 76 36 47 61 34 52 80 33 54 79 5 87 77 21 78 59 38 60 75 42 65 59 22 81 72 34 83 71 33 87 70 42 59 78 39 61 73 4 69 73 </DataArray>
			<DataArray type="UInt32" Name="offsets" format="ascii">3 6 9 12 15 18 21 24 27 30 33 36 39 42 45 48 51 54 57 60 63 66 69 72 75 78 81 84 87 90 93 96 99 102 105 108 111 114 117 120 123 126 129 132 135 138 141 144 147 150 153 156 159 162 165 168 171 174 177 180 183 186 189 192 195 198 201 204 207 210 213 216 219 222 225 228 231 234 237 240 243 246 249 252 255 258 261 264 267 270 273 276 279 282 285 288 291 294 297 300 303 306 309 312 315 318 321 324 327 330 333 336 339 342 345 348 351 354 357 360 363 366 369 372 375 378 381 384 387 390 393 396 399 402 405 408 411 414 417 420 423 426 429 432 435 438 441 444 447 450 453 456 459 462 </DataArray>
			<DataArray type="UInt8" Name="types" format="ascii">5 5 5 5 5 5 5 5 5 5 5 5 5 5 5 5 5 5 5 5 5 5 5 5 5 5 5 5 5 5 5 5 5 5 5 5 5 5 5 5 5 5 5 5 5 5 5 5 5 5 5 5 5 5 5 5 5 5 5 5 5 5 5 5 5 5 5 5 5 5 5 5 5 5 5 5 5 5 5 5 5 5 5 5 5 5 5 5 5 5 5 5 5 5 5 5 5 5 5 5 5 5 5 5 5 5 5 5 5 5 5 5 5 5 5 5 5 5 5 5 5 5 5 5 5 5 5 5 5 5 5 5 5 5 5 5 5 5 5 5 5 5 5 5 5 5 5 5 5 5 5 5 5 5 </DataArray>
		</Cells>
		<PointData Scalars="T">
			<DataArray type="Float64" Name="T" format="ascii">30.0 30.0 46.15468088365906 46.85123734642213 74.14538205230222 47.321330961220866 47.957819244739554 47.7345622214077 46.760290854033215 46.57928092830978 46.328168842727734 43.16179435988825 37.23030845113784 30.0 30.0 30.0 30.0 37.33758939839617 43.35969473621794 46.67925800422025 47.21193590032827 48.55253872538187 50.09982842183227 49.00205170726698 41.03929316153634 41.664145195847425 45.670856677384215 50.93327684014548 49.688973313450624 54.36366876891096 48.917259820332276 52.827145196805105 49.69633894335048 48.272576953950285 38.0939733614946 54.12468505000852 54.40795507938276 55.086611973241865 54.633949347992434 56.6744348157961 56.37429847542623 44.65764954216863 47.08577035270179 40.53350609446749 49.24669662003218 35.47607300511882 47.51713825822916 56.43292297247716 40.84275262482986 47.58081085775235 46.152278498606606 40.63545933385604 43.34686861718447 46.73750450125282 50.11711468022198 48.56632094329836 51.01020941340067 37.067217536711546 51.30809423325711 48.95094473489582 59.418277254776314 61.01119748143171 49.71720271262655 45.561337109405876 47.00230539137165 47.94669928263535 45.04212857923284 47.763698689520346 46.75570379496096 60.53476944248709 48.789938441019494 37.267408066087604 52.4061810756873 61.30792441275114 35.6575711113625 61.62969280820293 34.95642136130486 47.101562968016715 47.614082730952816 48.64801906005976 41.94395340573526 50.97325343247946 53.36890927340029 34.09325687015164 53.31881581154646 43.62361365838041 49.6992797575494 47.65727980363767 </DataArray>
		</PointData>
		</Piece>
	</UnstructuredGrid>
</VTKFile>