<?xml version="1.0"?>
<VTKFile type="UnstructuredGrid" version="0.1" >
	<UnstructuredGrid>
		<Piece NumberOfPoints="5817" NumberOfCells="11368">
		<Points>
			<DataArray type="Float64" NumberOfComponents="3" format="ascii">0.0 0.0257 0 0.09 0.0257 0 0.057 0.0315 0 0.09 0.0315 0 0.0 0.0397 0 0.047 0.0397 0 0.047 0.0315 0 0.005 0.03215 0 0.006562500000000001 0.03215 0 0.008125 0.03215 0 0.009687500000000002 0.03215 0 0.01125 0.03215 0 0.0128125 0.03215 0 0.014375 0.03215 0 0.0159375 0.03215 0 0.0175 0.03215 0 0.0190625 0.03215 0 0.020625 0.03215 0 0.0221875 0.03215 0 0.02375 0.03215 0 0.0253125 0.03215 0 0.026875 0.03215 0 0.0284375 0.03215 0 0.0007966101694901747 0.0397 0 0.001593220338980296 0.0397 0 0.002389830508470269 0.0397 0 0.003186440677960314 0.0397 0 0.003983050847450612 0.0397 0 0.004779661016940743 0.0397 0 0.005576271186431194 0.0397 0 0.006372881355921017 0.0397 0 0.007169491525410227 0.0397 0 0.007966101694899487 0.0397 0 0.008762711864388793 0.0397 0 0.009559322033878201 0.0397 0 0.01035593220336788 0.0397 0 0.01115254237285689 0.0397 0 0.0119491525423459 0.0397 0 0.01274576271183491 0.0397 0 0.01354237288132423 0.0397 0 0.01433898305081364 0.0397 0 0.01513559322030331 0.0397 0 0.01593220338979232 0.0397 0 0.01672881355928134 0.0397 0 0.01752542372877035 0.0397 0 0.01832203389825936 0.0397 0 0.01911864406774838 0.0397 0 0.01991525423723739 0.0397 0 0.02071186440672641 0.0397 0 0.02150847457621542 0.0397 0 0.02230508474570495 0.0397 0 0.0231016949151948 0.0397 0 0.02389830508468676 0.0397 0 0.0246949152541808 0.0397 0 0.02549152542367489 0.0397 0 0.02628813559316872 0.0397 0 0.02708474576266241 0.0397 0 0.02788135593215651 0.0397 0 0.02867796610164986 0.0397 0 0.02947457627114267 0.0397 0 0.03027118644063541 0.0397 0 0.03106779661012882 0.0397 0 0.03186440677962171 0.0397 0 0.03266101694911631 0.0397 0 0.03345762711860985 0.0397 0 0.034254237288103 0.0397 0 0.03505084745759494 0.0397 0 0.0358474576270869 0.0397 0 0.03664406779657885 0.0397 0 0.03744067796607347 0.0397 0 0.03823728813556701 0.0397 0 0.03903389830506054 0.0397 0 0.0398305084745548 0.0397 0 0.04062711864404898 0.0397 0 0.04142372881354252 0.0397 0 0.04222033898303608 0.0397 0 0.04301694915253074 0.0397 0 0.04381355932202449 0.0397 0 0.04461016949151803 0.0397 0 0.04540677966101203 0.0397 0 0.04620338983050646 0.0397 0 0.047 0.03895454545454915 0 0.047 0.03820909090909423 0 0.047 0.03746363636364338 0 0.047 0.03671818181819043 0 0.047 0.03597272727273762 0 0.047 0.03522727272728677 0 0.047 0.03448181818182582 0 0.047 0.03373636363637016 0 0.047 0.03299090909091697 0 0.047 0.03224545454545627 0 0.04776923076922691 0.0315 0 0.0485384615384606 0.0315 0 0.0493076923076895 0.0315 0 0.05007692307691714 0.0315 0 0.05084615384614781 0.0315 0 0.05161538461537639 0.0315 0 0.05238461538460466 0.0315 0 0.05315384615383564 0.0315 0 0.05392307692306932 0.0315 0 0.05469230769230238 0.0315 0 0.05546153846153399 0.0315 0 0.05623076923076496 0.0315 0 0.05778571428571364 0.0315 0 0.0585714285714258 0.0315 0 0.05935714285713821 0.0315 0 0.06014285714285185 0.0315 0 0.06092857142856516 0.0315 0 0.06171428571427467 0.0315 0 0.06249999999998644 0.0315 0 0.06328571428569556 0.0315 0 0.0640714285714092 0.0315 0 0.06485714285711743 0.0315 0 0.06564285714283107 0.0315 0 0.06642857142854044 0.0315 0 0.06721428571424853 0.0315 0 0.06799999999996113 0.0315 0 0.06878571428567477 0.0315 0 0.06957142857138841 0.0315 0 0.07035714285710205 0.0315 0 0.07114285714281027 0.0315 0 0.0719285714285185 0.0315 0 0.07271428571423214 0.0315 0 0.07349999999995119 0.0315 0 0.07428571428567025 0.0315 0 0.07507142857138092 0.0315 0 0.0758571428570925 0.0315 0 0.07664285714281169 0.0315 0 0.07742857142853088 0.0315 0 0.07821428571425007 0.0315 0 0.07899999999996837 0.0315 0 0.07978571428567659 0.0315 0 0.0805714285713941 0.0315 0 0.08135714285711329 0.0315 0 0.08214285714283248 0.0315 0 0.08292857142855167 0.0315 0 0.0837142857142648 0.0315 0 0.08449999999997469 0.0315 0 0.08528571428569376 0.0315 0 0.08607142857141281 0.0315 0 0.08685714285713188 0.0315 0 0.08764285714284552 0.0315 0 0.08842857142856161 0.0315 0 0.0892142857142808 0.0315 0 0.09 0.03077499999999932 0 0.09 0.03005000000000136 0 0.09 0.02932500000000339 0 0.09 0.02860000000000678 0 0.09 0.02787500000000474 0 0.09 0.02715000000000407 0 0.09 0.02642500000000203 0 0.08920353982300873 0.0257 0 0.08840707964601746 0.0257 0 0.08761061946902618 0.0257 0 0.08681415929203636 0.0257 0 0.08601769911504996 0.0257 0 0.08522123893806482 0.0257 0 0.08442477876107969 0.0257 0 0.08362831858409152 0.0257 0 0.08283185840710025 0.0257 0 0.08203539823010898 0.0257 0 0.08123893805311772 0.0257 0 0.08044247787612643 0.0257 0 0.07964601769913517 0.0257 0 0.07884955752214623 0.0257 0 0.07805309734516071 0.0257 0 0.07725663716817559 0.0257 0 0.07646017699119045 0.0257 0 0.07566371681420427 0.0257 0 0.07486725663721465 0.0257 0 0.07407079646022338 0.0257 0 0.07327433628323211 0.0257 0 0.07247787610624083 0.0257 0 0.07168141592924956 0.0257 0 0.0708849557522583 0.0257 0 0.07008849557526703 0.0257 0 0.06929203539827575 0.0257 0 0.06849557522128448 0.0257 0 0.06769911504429516 0.0257 0 0.06690265486730926 0.0257 0 0.06610619469032412 0.0257 0 0.06530973451333899 0.0257 0 0.0645132743363532 0.0257 0 0.06371681415936396 0.0257 0 0.0629203539823727 0.0257 0 0.06212389380538142 0.0257 0 0.06132743362839121 0.0257 0 0.06053097345140271 0.0257 0 0.05973451327441457 0.0257 0 0.05893805309742765 0.0257 0 0.05814159292043904 0.0257 0 0.05734513274344991 0.0257 0 0.05654867256646171 0.0257 0 0.0557522123894735 0.0257 0 0.0549557522124853 0.0257 0 0.05415929203549579 0.0257 0 0.0533628318585062 0.0257 0 0.052566371681518 0.0257 0 0.0517699115045298 0.0257 0 0.0509734513275416 0.0257 0 0.05017699115055253 0.0257 0 0.04938053097356176 0.0257 0 0.04858407079657172 0.0257 0 0.04778761061958338 0.0257 0 0.04699115044259518 0.0257 0 0.04619469026560698 0.0257 0 0.04539823008861819 0.0257 0 0.0446017699116277 0.0257 0 0.04380530973463547 0.0257 0 0.04300884955764153 0.0257 0 0.0422123893806472 0.0257 0 0.04141592920365299 0.0257 0 0.04061946902666049 0.0257 0 0.03982300884966873 0.0257 0 0.03902654867267526 0.0257 0 0.03823008849568092 0.0257 0 0.03743362831868659 0.0257 0 0.03663716814169345 0.0257 0 0.03584070796470201 0.0257 0 0.03504424778770898 0.0257 0 0.03424778761071465 0.0257 0 0.03345132743372031 0.0257 0 0.03265486725672598 0.0257 0 0.03185840707973258 0.0257 0 0.03106194690274089 0.0257 0 0.03026548672574832 0.0257 0 0.02946902654875404 0.0257 0 0.02867256637175971 0.0257 0 0.02787610619476584 0.0257 0 0.02707964601777371 0.0257 0 0.02628318584078243 0.0257 0 0.02548672566379116 0.0257 0 0.02469026548679988 0.0257 0 0.0238938053098058 0.0257 0 0.02309734513280839 0.0257 0 0.02230088495581098 0.0257 0 0.02150442477881358 0.0257 0 0.02070796460181765 0.0257 0 0.01991150442482514 0.0257 0 0.01911504424783388 0.0257 0 0.01831858407084261 0.0257 0 0.01752212389385134 0.0257 0 0.01672566371686007 0.0257 0 0.01592920353986879 0.0257 0 0.01513274336287623 0.0257 0 0.01433628318588023 0.0257 0 0.01353982300888282 0.0257 0 0.0127433628318854 0.0257 0 0.01194690265489076 0.0257 0 0.01115044247789948 0.0257 0 0.01035398230090821 0.0257 0 0.009557522123916931 0.0257 0 0.008761061946925663 0.0257 0 0.007964601769934396 0.0257 0 0.007168141592943128 0.0257 0 0.00637168141595186 0.0257 0 0.005575221238957484 0.0257 0 0.004778761061960082 0.0257 0 0.003982300884962667 0.0257 0 0.003185840707966528 0.0257 0 0.002389380530973817 0.0257 0 0.001592920353982549 0.0257 0 0.0007964601769912677 0.0257 0 0.0 0.02647777777777605 0 0.0 0.02725555555555157 0 0.0 0.02803333333332769 0 0.0 0.02881111111110313 0 0.0 0.02958888888887925 0 0.0 0.0303666666666547 0 0.0 0.03114444444443082 0 0.0 0.03192222222220566 0 0.0 0.03269999999998238 0 0.0 0.03347777777776181 0 0.0 0.03425555555553778 0 0.0 0.03503333333331842 0 0.0 0.03581111111110207 0 0.0 0.03658888888888301 0 0.0 0.03736666666665853 0 0.0 0.03814444444443977 0 0.0 0.03892222222222191 0 0.03537979649676567 0.03266272305597096 0 0.0276770541735694 0.03586323125576883 0 0.02447843363340028 0.03524943502635516 0 0.02140625 0.03517651212805544 0 0.01828125000000001 0.03517576833064508 0 0.01515625 0.03517576823922458 0 0.01203125 0.03517576823922455 0 0.00890625 0.03517576823922455 0 0.005771130485499083 0.03515496824690819 0 0.02765943822797291 0.02897069563398543 0 0.02454714597659532 0.02917551099262972 0 0.02149119258202933 0.02922958138609759 0 0.01826547962114206 0.02917672190621663 0 0.01507095436824671 0.02923170211800504 0 0.01202531585571584 0.02917665248553363 0 0.008921690548533461 0.02917750800273865 0 0.00578125 0.02912423176077545 0 0.02611279290703822 0.03399641384634479 0 0.03172244050751743 0.03480568260960683 0 0.02296875000000002 0.03396575851735122 0 0.01985094419594721 0.03400763085943358 0 0.013610968999998 0.03402449461299138 0 0.01046155652409754 0.0340076353550832 0 0.01673596941748619 0.03402449197445937 0 0.007336558654941363 0.03400764852976328 0 0.00891991733829561 0.03361615539607797 0 0.01826758615890785 0.0336161495911086 0 0.01514252893592273 0.03361633095622395 0 0.02138085110778079 0.03359368464664898 0 0.02453929370424135 0.03358000440930039 0 0.02765625000000001 0.03356820091342894 0 0.03153787557402606 0.02968359884384876 0 0.02609374999999998 0.03033301527013822 0 0.0229863550425312 0.03027187108205753 0 0.0104508551100628 0.03027184942432797 0 0.01361164488993717 0.03027184942432796 0 0.01986134022815611 0.03027184943850311 0 0.0167363402200724 0.03027184942432789 0 0.007325855110062824 0.0302718494243279 0 0.01200519950397284 0.03069332566716722 0 0.01825519950753713 0.03069332566364249 0 0.01513019950397284 0.03069332566716731 0 0.02143230053266133 0.03069332570118038 0 0.00893230049602721 0.03069332566716734 0 0.005767937769241656 0.03072611769357186 0 0.02455737403930888 0.03069343304649903 0 0.02765625000000001 0.03073763584753919 0 0.04111187748578679 0.03195765408841861 0 0.0120449690
[...]
		<PointData Scalars="T">
			<DataArray type="Float64" Name="T" format="ascii">143.08460135057607 19.99998349356711 36.82500811785717 19.99998349356711 150.84665947102079 73.44269564216894 64.14097784035565 167.77013544829674 170.8016966625914 172.17581249596964 172.83855004795433 172.83442609828845 172.30908007757276 171.1499509828381 169.5633400545707 167.35976380080083 164.70050788789095 161.4091871345345 157.59667918167509 153.05625885235872 147.7972520785028 141.7364671957148 133.79171482882288 150.8861925045626 151.0062219331167 151.19711921347198 151.4445824478022 151.73312175264536 152.04412954613704 152.3541039879473 152.63884927193067 152.88220675234436 153.06233782240452 153.17385909463596 153.19354751962712 153.1203302517237 152.94123987067064 152.65009447142322 152.24613405125245 151.72493625491188 151.08087318603359 150.30946831577802 149.426493781902 148.40172544171557 147.25844272654192 145.9831011839898 144.58065566992283 143.04454845905911 141.3741085941467 139.57302535863977 137.64258323725318 135.5852013386013 133.40215659959847 131.09609084360977 128.68480124608038 126.16586296657448 123.5563793400764 120.8771365784116 118.138359974207 115.36838352708692 112.58411098455606 109.81111644851416 107.06770852866777 104.36609623879492 101.73092559519019 99.16130828958136 96.6756551267346 94.27915267833583 91.9934748911379 89.79567514256779 87.70433788324637 85.73040949393572 83.87149446886447 82.13785491880695 80.52810920386192 79.05723622332555 77.72370771581835 76.53912004632944 75.52629739265052 74.65720540042881 73.9645654929797 73.77528617130329 73.95697322860966 73.98013277070923 73.83313867684122 73.50332208014808 72.9912138030134 72.24694957620504 71.2192344251882 69.82912520208332 67.75093002338619 59.31295370475186 55.970314840137675 53.296862864159074 50.96292540872573 48.848196758276096 46.92244833987929 45.14726985876711 43.50836749468797 41.97988387188119 40.55637213309799 39.23304667979106 37.98676269484407 35.71826758769158 34.68552364658812 33.71461071910605 32.816131360280814 31.966162948010748 31.175555097135096 30.437182158053528 29.744345845552495 29.09312856029972 28.484040634294455 27.91343924695602 27.380097389743263 26.882093772744042 26.41611142885357 25.97875911682131 25.56776759320399 25.18180472590221 24.819008549611127 24.477978174205994 24.159518076560197 23.857433373211254 23.57346833022251 23.308283197470626 23.055050566755458 22.818315171308758 22.595007532798853 22.38094057929707 22.179918701817297 21.984585724139052 21.80102684591658 21.62317157902201 21.45118229077648 21.28829163383807 21.132473381711424 20.982474263845972 20.834188084343943 20.6892040018369 20.54777250569449 20.410068066945875 20.27223566302907 20.136666016301234 19.99998349356711 19.99998349356711 19.99998349356711 19.99998349356711 19.99998349356711 19.99998349356711 19.99998349356711 20.137838899281522 20.279596034859274 20.41587635380752 20.557117784700587 20.699623035921476 20.84530121625727 20.996377705986568 21.153840977618383 21.316884342141197 21.48187930792968 21.652316864713125 21.83198674900803 22.016991072588294 22.214305499643842 22.422456378800696 22.639540068287552 22.871452938072075 23.11657764118271 23.37580118402844 23.649685094616313 23.94027102694205 24.250662101890057 24.580661906734292 24.933176833112 25.30612639325213 25.708689701138553 26.13382609244517 26.58924087942221 27.07803629310083 27.60113619213139 28.152035701917562 28.744060895509993 29.376783144366662 30.057569446568095 30.781870296939072 31.55820200798598 32.38350326100808 33.27305919113353 34.21982646502155 35.23524601202673 36.320456343100936 37.479433388881965 38.71990869595848 40.035254613321435 41.444592514914106 42.950713023537 44.55173985888698 46.23781131950821 48.02956300330446 49.910320869109285 51.86585474183821 53.9018090372023 55.97505382363651 58.085532044881845 60.20890677040463 62.32106953058041 64.4287287895741 66.5224213531447 68.60454552464968 70.69016047747913 72.78116389704417 74.89663288719467 77.03523274519294 79.21287398587977 81.44079590084382 83.72136150059687 86.06437574273555 88.47974095333505 90.9630347619253 93.5265591994064 96.1567328216703 98.84796993254893 101.61270247045447 104.4213837074868 107.2562965564478 110.102733790651 112.93105194790516 115.71549225564968 118.4311312832854 121.05423204780115 123.57556930150615 125.97599800148615 128.2497382649451 130.39104245966132 132.40170215294975 134.26682773009588 136.00648775193858 137.60104802527752 139.0700310105069 140.39743465817313 141.60678429893036 142.680623124771 143.62262429263552 144.43455719739427 145.13356750380282 145.70064072904145 146.14593367876475 146.46953659101834 146.67516611661213 146.7608911121105 146.74017856767935 146.61359490227238 146.38879003273124 146.0778758430603 145.69786774228072 145.26801584512464 144.81407120318502 144.36319236482902 143.9482868994021 143.5895111823356 143.31612690030417 143.14474664411838 145.11346470529085 147.03039247255657 148.80917895259373 150.45702747039735 151.91366138078905 153.16926795198322 154.18574775535293 154.94952275333927 155.43293215325502 155.64217294159766 155.60552140427782 155.34444117485165 154.90084869648697 154.30210213296823 153.58253448240683 152.75773701600573 151.8440215907723 97.1065823367692 126.30377504943253 138.72455915425223 147.511165160482 154.00590091173098 158.3518168597385 160.63476754151378 160.8709876948487 159.1186255229166 124.01153254111118 135.72741922796615 144.44459618142946 150.85669933858443 155.30889055947432 157.1670562240211 157.21660275708396 155.07093513074236 135.75431567097857 110.88274941758579 146.20222575544756 153.78173521509487 162.4524682045756 163.6948987256627 159.14468393185274 162.64223002585473 164.4104824591524 157.7906419707841 162.12622258685488 151.35729031836914 142.32157256120064 130.36101899953727 109.21374531728002 134.05575143121862 144.048255323085 161.3211552927961 160.23343956708388 151.6720605605767 157.01203615850505 160.13744390748374 162.6341855436027 156.2246053494009 160.47765737621017 149.65252189537384 162.58011611016474 160.07477560899957 140.7080770416529 128.961150504191 79.98357362279356 164.34676731020573 161.9162277934548 157.0862568354039 154.2128760789542 118.7341238247816 119.62127644093192 138.41835015701483 148.95574502277552 156.67972198644298 165.33813455475115 166.45340661526447 162.0726065346345 165.1878686021667 137.74842226313675 148.2063005057359 165.5106695743557 164.45845174616943 161.22456431497696 155.86892698569488 164.18738451034648 132.31203168586683 132.1725629375686 144.7211322222895 144.47715472127734 153.72944742930903 153.48653690875068 166.74757427266942 166.52128722901318 164.55992202660346 164.31047018210577 160.24136508419463 159.99876942657974 166.73394518825654 166.45561346698705 163.89195229990995 163.53582519998315 118.50466197987093 87.42681848135409 78.30087433164871 127.35195939441228 133.86879388045452 161.60074296008105 158.17786880068104 145.211424562552 153.60046227639353 165.1247950980858 165.0858547500556 164.6238890575683 163.41825887696157 161.93663717087927 159.59072757808312 164.53350709909455 157.147734448824 163.04857037890775 150.1147533988087 140.5827787241906 166.33368115512417 165.74377083906197 164.5993141292343 166.2918553320505 160.7869323063226 163.10065349080196 165.7845751631587 164.32604197478017 158.27452984892733 154.81972023156666 151.21076913022168 146.4855150479932 141.38054486654443 135.13559976720188 86.75102995980646 157.99879307215204 113.53268695320929 155.22595013806915 70.06071540491025 156.6314893745264 157.1672943043633 155.69570873088736 147.03410680389933 152.42888320817528 160.74934537845985 127.18592216099918 139.63340216808973 98.59271478336585 96.18697003230919 106.29921512467428 142.76230080210564 117.53729067661419 130.96124206792717 139.27070410673477 150.04311781965342 157.72728086452602 167.4124082720102 166.3454946306973 163.09782943815694 166.0665993837221 159.43444070498114 124.35989394287166 132.32205798269038 156.00682931865668 154.88980574531152 151.7345527066016 155.08526674454757 146.48691428986083 139.05554027762597 77.6827932021359 129.34774484396124 73.73090748696069 150.42396566729633 123.18468467532611 159.63447407323628 160.32443368346455 150.29396852974662 159.0694086214338 155.77680978333632 130.41882755252144 59.321002790769 20.524407990248125 50.17996712585653 43.18659085164745 37.854221713963426 87.58374288495612 122.91935402607642 123.73113439268022 21.09393167540264 21.77540515044239 22.564928895434203 23.55215324172224 24.79856713206087 26.393700398239222 28.45944810181171 31.209648915897336 108.50166355178362 160.11771549903614 34.35709038033468 156.04508642954707 156.67970737903093 167.44880086620208 167.33245718694144 164.90928801364075 165.4922154581137 167.21309953559836 167.48551121009783 161.35885069509553 160.4198269013909 164.02766545968154 164.90986897056067 155.03686078205828 153.71837153550015 146.24822349554245 144.47068779421156 134.27902520371617 131.68773066951124 142.40717351442004 82.61193480613723 138.31814195118127 148.84926561884177 155.95587411288292 164.18567244050675 163.56618941368293 162.4375278281039 164.22441453668748 160.83084287444854 158.65206183499123 163.6883110101203 162.48901335388706 152.68664022546577 133.3594430311614 120.19255507922058 167.15016892132945 166.78298985895182 164.25322938944902 165.28530046122992 166.7099789261863 167.07686195610287 161.31455474704265 159.61333389886235 164.73966894078282 163.14545843865284 152.7427900715011 155.1622104231808 146.57963875443872 143.29605007604528 134.88460554475728 130.26264995235246 160.45438740952451 159.09682969658996 156.61857751975208 137.8267337352915 101.90573997708822 141.01077202007605 112.99277092758221 151.1994515257865 148.92664038069353 158.5930954326529 156.96285322444373 167.55811208224245 167.51618714966972 166.70232719807402 166.17115796162085 163.7094526166633 162.6348551294235 165.85633291616477 166.5938429635427 112.93769430559726 157.74447167524067 157.32955175307828 155.07641391087458 150.70797591611904 166.98034506653673 167.09063416374073 166.2045533391969 165.7367322797656 163.22276695755332 162.2204792710996 166.09197119732818 165.29325797594137 156.57231806939242 158.12362558470116 148.5707283011406 150.75160622155607 144.2856640404181 81.85432639294284 76.18912875795154 140.58566622134438 137.46663024431817 103.2118734045744 91.7105231218951 128.93015423526074 160.60338453227132 161.93797150129456 150.72658717552835 160.29299746264934 156.54160222376206 146.13442256933448 149.43681401953495 161.2621658556416 146.0984066381021 161.80179011015858 153.0335502570148 160.95919821150213 158.08595514528426 151.441526489019 139.99128826299753 151.97268266121517 129.86371040030113 129.83543074118327 150.42383760963284 162.1100674108939 161.53296472084162 162.08568355036394 160.4746311237779 158.84627442027084 156.72731381185991 161.46108362299103 154.05672753368887 160.24159011488462 150.7829570405587 147.07996233808225 142.52368267089903 137.40304790995557 102.49741507443122 163.24879281181163 150.21397384615366 157.10809504571404 155.28633148740616 155.7547543129931 122.23233946878925 138.4840913912263 136.39932235384182 146.55720536227813 93.69636540858147 167.17561364665622 165.84723454570525 167.59221101443762 167.12335838349526 164.5804587006267 165.3461197075771 167.56698221497226 161.91056715891904 159.8577663471258 155.80799091231123 152.9085200670921 147.27639445775603 143.44946828655063 88.37500089676821 135.5930861459187 74.68147458075565 93.64403971487191 127.4719733186996 161.9566586078315 149.90081033388537 156.28095131625605 162.74989638662493 162.75502257337618 160.00109560152316 160.6912964985325 64.30612655907288 158.72707063985385 158.627786896745 153.63176917180795 155.1310195336959 158.02350202894468 157.08426782306134 157.96063782088393 157.18966520335195 147.96246776108345 150.19487609151048 139.6458028546703 143.12646342793187 164.40834518971317 163.8921787471165 165.3032459224321 165.3106563119614 160.36035434423542 161.35660872846762 164.42366207526885 163.84077296920574 156.1925500877671 154.67410300747318 148.73998861383814 153.40028420935838 81.78544853446128 113.92859484626976 129.88261378471714 133.78559657845415 134.46546269492558 144.3696267063269 135.90639019134824 132.03810148210962 129.74618801679398 71.60611796115198 162.50434389682823 143.93822403515276 152.72589821727914 165.23499114140097 165.09635771323715 163.22843117372253 165.1711049702322 162.7191927608815 159.09707395279148 165.01625922000295 158.2743021257775 162.65765049199115 161.8288289074186 151.61101315458995 142.4279399118406 126.51636817798693 140.394026141841 64.80378834958464 82.28341062153389 117.59142795588363 145.31773456358277 153.26683040215724 163.69234900837824 163.68995276506337 162.85707983687092 162.37227536559243 159.8960540736166 158.87960143539448 162.7274383147389 154.79401916295024 162.12953545295642 147.42119277623988 117.6368876049515 137.33875070704386 132.6993074424393 78.95046686510602 144.37831206673908 142.784325642438 153.26654432434918 152.01942446652978 165.5787820301068 165.84696015269662 163.74513745535103 163.25708925198396 165.7886719088687 165.6564479546805 159.59332016975597 158.73987480660665 163.45601878379017 143.5791117727882 74.63544608593394 100.74202866052677 104.89524576020705 157.86482630446588 122.23029288538716 131.26804347401196 149.75081920936103 133.46337142903644 142.6627955207124 151.13458866730747 137.6222849894745 150.79497392472052 108.04570742391842 146.59584420669532 159.7885837381652 153.4856962427109 159.69261744220498 157.73372826588155 157.7054151545086 154.91982452351075 127.96656699320727 120.08902231536123 55.644165849162505 47.145626304508944 40.80435999383869 86.76689973396749 141.74505103210217 154.5788640663333 125.36195442355387 126.94085129204461 21.410966300136387 22.13774367901375 23.0174469308401 24.116580001652203 25.520230405672923 27.323996396686855 29.482431052012966 154.74582000957105 147.57476658683078 152.83001559726466 152.62628193125826 125.82968667664205 154.8718679522225 140.84508243002998 21.408640243447596 22.119943696530864 54.27374034130129 23.003479862813233 134.8065312671568 24.102661555819303 25.49915721944815 134.6968777993085 27.3035830115 29.71410371042652 122.83902577042542 46.57994251606587 77.83485868058322 40.23298476333633 149.3770238225055 157.4217308855544 166.65197579075408 167.0796677665956 168.04284057172856 163.10486240751965 127.69502703909677 123.94286611984549 156.1026855455601 162.19571453280554 147.96115872228262 156.2629000740409 167.54955411827515 165.92640851627925 162.17339100274336 166.84683794713936 142.43088138434277 138.46318045032083 20.791473361142817 20.7984409748108 151.7062444404794 159.10450001858035 167.22355010584084 168.03038002764595 164.22602429074587 166.3587560536184 161.19343388440777 100.33173802776632 134.8814283026548 35.589751248432584 139.52688039322342 32.702549363231725 157.54960752541865 114.01234190133128 136.67868409463983 153.30693717444424 157.1103379173211 159.27994754833475 95.5364939141467 20.296618334860824 20.29424024382362 144.07455042884683 159.0900473907004 158.5890347799931 159.11192272657993 151.0002878806541 155.87005071674673 147.38463770735444 166.4791262280915 161.5070342920228 165.05950612906898 165.57047639703848 155.8172714495683 147.7697615323814 69.30131362848105 118.11110718812004 153.88501721403995 154.67914877771622 152.3759418234684 159.4986792746352 167.68184007859725 167.14110231941592 164.3743180534663 165.6831627547162 140.01804041852068 35.97431089204555 135.83336476752453 146.79690941642235 154.818204693328 165.39969509467468 164.0202330389372 160.48692648303293 164.45148056223093 32.74513222200277 139.16282200166177 161.40691917153887 112.83724314053333 131.26460661760316 158.65410822752264 96.03747476406649 152.22247727401322 120.85111925794587 115.42185099941614 144.61096855830937 107.49135049198125 118.92547402568536 140.76358489084274 146.58339601488063 154.0398237904121 134.64882046540484 153.81016151513526 168.14555678807463 162.7883757157642 166.53536663684105 167.42400886764386 156.89016307757828 148.5968845076753 152.2864898062724 139.32402694964728 142.87616982305332 83.47248551013489 125.89370266445027 111.92443316499325 166.40153063075542 162.52550350813092 165.54688552093893 164.82269695845474 157.38420760476396 149.95938594583546 132.78519587011957 77.2995527690251 138.2576641866398 129.12767379598208 160.72654544866737 147.4271003295998 162.46834413041537 148.24570558670675 155.0397599286038 162.29434401081835 136.80523220504128 139.22990562633146 148.41351044397183 149.99345141611752 149.65104619524095 157.38705479476187 167.21059645328316 166.08794544881525 162.79974197575586 165.93449206728496 107.01738257710235 71.96784891728684 152.77707725446504 159.93568447432693 168.27341167941572 167.67207896218093 164.84523537213667 166.33258466731374 152.73779817275505 122.28314471655543 108.73046484407301 137.4831612798748 141.21472053873433 149.11473804027713 156.46622219900556 165.2792016353274 164.5138431387941 161.5473524466085 163.61971156079693 89.67455945133207 103.91803502317008 74.74042214791994 155.1487170160911 149.54922022405424 163.66558230766384 163.29126540483543 161.77646160841644 160.83092412775756 163.6187220504899 157.78240622764906 163.2102630400546 156.2750585923069 161.36073292212401 151.49253132646112 140.23295716609553 142.8946184320152 154.12246454889035 126.97098397390329 149.24043196146755 151.16594852075642 138.8204306879208 132.20868670512212 127.03645388757133 143.8303857365845 77.30104451089389 149.26443059404184 156.98078332457408 166.7548750401072 165.6606692643524 162.3809896083627 165.45684161149123 98.53078871568214 136.57116666219105 150.33661980182694 157.2790942333322 165.08425689751064 161.9958492794474 164.64594588433224 156.98334801751457 130.64272090758575 89.30028551020021 164.7595735091233 163.38679831507596 159.45217846793273 165.22407736019494 163.21641335790525 153.36222728695458 133.38498383072096 81.37412843558845 132.65270843624086 145.00999316588207 154.0323189568276 167.0738069996263 164.86553684481993 167.0196223541517 160.55317693296095 164.12492226032592 168.22933268699032 168.08128215045153 166.14492285051855 166.3876644818905 165.45691058735454 168.42981585941897 162.4192309044661 167.78316175376327 160.7640798431543 156.27182442462046 153.84317764093086 144.28904230893326 147.69037267037345 160.7687681893641 59.90523443107666 136.02005582461575 61.124512027526535 151.83461312245754 149.08763045365743 130.57439922558422 92.1601329103802 92.21655402254177 154.1866340077339 130.9947922994139 131.18568762003298 143.10738714570925 126.78398038137733 154.94663664664185 156.01224158188575 97.81538399439555 153.5587542467735 131.61338820890032 157.5780001639655 164.2277157819251 160.14382737321802 50.90371018068442 43.570461400445325 161.48370154765337 162.40911115231523 152.48403454031586 161.19201874066698 157.8909562964904 159.64136545582718 73.61823793314512 67.31359630714375 124.19750276706604 49.31638584371676 38.155827517759185 127.27231910779201 164.20664623665897 21.052648289810158 21.71513799644248 22.59408548230047 22.50186628935007 23.465770541345567 153.33734680383102 24.685269164574322 42.773677425978214 26.248693090097326 28.269755153390875 21.850307264106743 23.590641169410336 133.56770978015874 122.91931154112437 21.09917454743716 24.853803804141585 159.79421328057757 131.3459571313165 26.471905355942376 132.01335972093918 28.550304223428853 30.976864510623685 136.48073327613457 37.835959344697805 145.34641991729455 154.23902374656504 160.54454757675822 166.46468437735768 164.67231401608547 166.67108460861516 164.1768536515811 30.980786191651084 158.38375066988257 167.21697032256083 164.63618135989074 166.9784060289413 160.12293915182943 153.4020815879146 144.13970644604672 20.546720398309567 163.7476210102656 156.0511754956346 159.40349654100882 159.55775493788562 156.9381608752348 152.53207424517305 147.90761349021534 139.66505