<?xml version="1.0"?>
<VTKFile type="UnstructuredGrid" version="0.1" >
	<UnstructuredGrid>
		<Piece NumberOfPoints="2023" NumberOfCells="3780">
		<Points>
			<DataArray type="Float64" NumberOfComponents="3" format="ascii">0.0 0.0257 0 0.09 0.0257 0 0.057 0.0315 0 0.09 0.0315 0 0.0 0.0397 0 0.047 0.0397 0 0.047 0.0315 0 0.005 0.0318 0 0.006562500000000001 0.0318 0 0.008125 0.0318 0 0.009687500000000002 0.0318 0 0.01125 0.0318 0 0.0128125 0.0318 0 0.014375 0.0318 0 0.0159375 0.0318 0 0.0175 0.0318 0 0.0190625 0.0318 0 0.020625 0.0318 0 0.0221875 0.0318 0 0.02375 0.0318 0 0.0253125 0.0318 0 0.026875 0.0318 0 0.0284375 0.0318 0 0.0007966101694901747 0.0397 0 0.001593220338980296 0.0397 0 0.002389830508470269 0.0397 0 0.003186440677960314 0.0397 0 0.003983050847450612 0.0397 0 0.004779661016940743 0.0397 0 0.005576271186431194 0.0397 0 0.006372881355921017 0.0397 0 0.007169491525410227 0.0397 0 0.007966101694899487 0.0397 0 0.008762711864388793 0.0397 0 0.009559322033878201 0.0397 0 0.01035593220336788 0.0397 0 0.01115254237285689 0.0397 0 0.0119491525423459 0.0397 0 0.01274576271183491 0.0397 0 0.01354237288132423 0.0397 0 0.01433898305081364 0.0397 0 0.01513559322030331 0.0397 0 0.01593220338979232 0.0397 0 0.01672881355928134 0.0397 0 0.01752542372877035 0.0397 0 0.01832203389825936 0.0397 0 0.01911864406774838 0.0397 0 0.01991525423723739 0.0397 0 0.02071186440672641 0.0397 0 0.02150847457621542 0.0397 0 0.02230508474570495 0.0397 0 0.0231016949151948 0.0397 0 0.02389830508468676 0.0397 0 0.0246949152541808 0.0397 0 0.02549152542367489 0.0397 0 0.02628813559316872 0.0397 0 0.02708474576266241 0.0397 0 0.02788135593215651 0.0397 0 0.02867796610164986 0.0397 0 0.02947457627114267 0.0397 0 0.03027118644063541 0.0397 0 0.03106779661012882 0.0397 0 0.03186440677962171 0.0397 0 0.03266101694911631 0.0397 0 0.03345762711860985 0.0397 0 0.034254237288103 0.0397 0 0.03505084745759494 0.0397 0 0.0358474576270869 0.0397 0 0.03664406779657885 0.0397 0 0.03744067796607347 0.0397 0 0.03823728813556701 0.0397 0 0.03903389830506054 0.0397 0 0.0398305084745548 0.0397 0 0.04062711864404898 0.0397 0 0.04142372881354252 0.0397 0 0.04222033898303608 0.0397 0 0.04301694915253074 0.0397 0 0.04381355932202449 0.0397 0 0.04461016949151803 0.0397 0 0.04540677966101203 0.0397 0 0.04620338983050646 0.0397 0 0.047 0.03895454545454915 0 0.047 0.03820909090909423 0 0.047 0.03746363636364338 0 0.047 0.03671818181819043 0 0.047 0.03597272727273762 0 0.047 0.03522727272728677 0 0.047 0.03448181818182582 0 0.047 0.03373636363637016 0 0.047 0.03299090909091697 0 0.047 0.03224545454545627 0 0.04776923076922691 0.0315 0 0.0485384615384606 0.0315 0 0.0493076923076895 0.0315 0 0.05007692307691714 0.0315 0 0.05084615384614781 0.0315 0 0.05161538461537639 0.0315 0 0.05238461538460466 0.0315 0 0.05315384615383564 0.0315 0 0.05392307692306932 0.0315 0 0.05469230769230238 0.0315 0 0.05546153846153399 0.0315 0 0.05623076923076496 0.0315 0 0.05778571428571364 0.0315 0 0.0585714285714258 0.0315 0 0.05935714285713821 0.0315 0 0.06014285714285185 0.0315 0 0.06092857142856516 0.0315 0 0.06171428571427467 0.0315 0 0.06249999999998644 0.0315 0 0.06328571428569556 0.0315 0 0.0640714285714092 0.0315 0 0.06485714285711743 0.0315 0 0.06564285714283107 0.0315 0 0.06642857142854044 0.0315 0 0.06721428571424853 0.0315 0 0.06799999999996113 0.0315 0 0.06878571428567477 0.0315 0 0.06957142857138841 0.0315 0 0.07035714285710205 0.0315 0 0.07114285714281027 0.0315 0 0.0719285714285185 0.0315 0 0.07271428571423214 0.0315 0 0.07349999999995119 0.0315 0 0.07428571428567025 0.0315 0 0.07507142857138092 0.0315 0 0.0758571428570925 0.0315 0 0.07664285714281169 0.0315 0 0.07742857142853088 0.0315 0 0.07821428571425007 0.0315 0 0.07899999999996837 0.0315 0 0.07978571428567659 0.0315 0 0.0805714285713941 0.0315 0 0.08135714285711329 0.0315 0 0.08214285714283248 0.0315 0 0.08292857142855167 0.0315 0 0.0837142857142648 0.0315 0 0.08449999999997469 0.0315 0 0.08528571428569376 0.0315 0 0.08607142857141281 0.0315 0 0.08685714285713188 0.0315 0 0.08764285714284552 0.0315 0 0.08842857142856161 0.0315 0 0.0892142857142808 0.0315 0 0.09 0.03077499999999932 0 0.09 0.03005000000000136 0 0.09 0.02932500000000339 0 0.09 0.02860000000000678 0 0.09 0.02787500000000474 0 0.09 0.02715000000000407 0 0.09 0.02642500000000203 0 0.08920353982300873 0.0257 0 0.08840707964601746 0.0257 0 0.08761061946902618 0.0257 0 0.08681415929203636 0.0257 0 0.08601769911504996 0.0257 0 0.08522123893806482 0.0257 0 0.08442477876107969 0.0257 0 0.08362831858409152 0.0257 0 0.08283185840710025 0.0257 0 0.08203539823010898 0.0257 0 0.08123893805311772 0.0257 0 0.08044247787612643 0.0257 0 0.07964601769913517 0.0257 0 0.07884955752214623 0.0257 0 0.07805309734516071 0.0257 0 0.07725663716817559 0.0257 0 0.07646017699119045 0.0257 0 0.07566371681420427 0.0257 0 0.07486725663721465 0.0257 0 0.07407079646022338 0.0257 0 0.07327433628323211 0.0257 0 0.07247787610624083 0.0257 0 0.07168141592924956 0.0257 0 0.0708849557522583 0.0257 0 0.07008849557526703 0.0257 0 0.06929203539827575 0.0257 0 0.06849557522128448 0.0257 0 0.06769911504429516 0.0257 0 0.06690265486730926 0.0257 0 0.06610619469032412 0.0257 0 0.06530973451333899 0.0257 0 0.0645132743363532 0.0257 0 0.06371681415936396 0.0257 0 0.0629203539823727 0.0257 0 0.06212389380538142 0.0257 0 0.06132743362839121 0.0257 0 0.06053097345140271 0.0257 0 0.05973451327441457 0.0257 0 0.05893805309742765 0.0257 0 0.05814159292043904 0.0257 0 0.05734513274344991 0.0257 0 0.05654867256646171 0.0257 0 0.0557522123894735 0.0257 0 0.0549557522124853 0.0257 0 0.05415929203549579 0.0257 0 0.0533628318585062 0.0257 0 0.052566371681518 0.0257 0 0.0517699115045298 0.0257 0 0.0509734513275416 0.0257 0 0.05017699115055253 0.0257 0 0.04938053097356176 0.0257 0 0.04858407079657172 0.0257 0 0.04778761061958338 0.0257 0 0.04699115044259518 0.0257 0 0.04619469026560698 0.0257 0 0.04539823008861819 0.0257 0 0.0446017699116277 0.0257 0 0.04380530973463547 0.0257 0 0.04300884955764153 0.0257 0 0.0422123893806472 0.0257 0 0.04141592920365299 0.0257 0 0.04061946902666049 0.0257 0 0.03982300884966873 0.0257 0 0.03902654867267526 0.0257 0 0.03823008849568092 0.0257 0 0.03743362831868659 0.0257 0 0.03663716814169345 0.0257 0 0.03584070796470201 0.0257 0 0.03504424778770898 0.0257 0 0.03424778761071465 0.0257 0 0.03345132743372031 0.0257 0 0.03265486725672598 0.0257 0 0.03185840707973258 0.0257 0 0.03106194690274089 0.0257 0 0.03026548672574832 0.0257 0 0.02946902654875404 0.0257 0 0.02867256637175971 0.0257 0 0.02787610619476584 0.0257 0 0.02707964601777371 0.0257 0 0.02628318584078243 0.0257 0 0.02548672566379116 0.0257 0 0.02469026548679988 0.0257 0 0.0238938053098058 0.0257 0 0.02309734513280839 0.0257 0 0.02230088495581098 0.0257 0 0.02150442477881358 0.0257 0 0.02070796460181765 0.0257 0 0.01991150442482514 0.0257 0 0.01911504424783388 0.0257 0 0.01831858407084261 0.0257 0 0.01752212389385134 0.0257 0 0.01672566371686007 0.0257 0 0.01592920353986879 0.0257 0 0.01513274336287623 0.0257 0 0.01433628318588023 0.0257 0 0.01353982300888282 0.0257 0 0.0127433628318854 0.0257 0 0.01194690265489076 0.0257 0 0.01115044247789948 0.0257 0 0.01035398230090821 0.0257 0 0.009557522123916931 0.0257 0 0.008761061946925663 0.0257 0 0.007964601769934396 0.0257 0 0.007168141592943128 0.0257 0 0.00637168141595186 0.0257 0 0.005575221238957484 0.0257 0 0.004778761061960082 0.0257 0 0.003982300884962667 0.0257 0 0.003185840707966528 0.0257 0 0.002389380530973817 0.0257 0 0.001592920353982549 0.0257 0 0.0007964601769912677 0.0257 0 0.0 0.02647777777777605 0 0.0 0.02725555555555157 0 0.0 0.02803333333332769 0 0.0 0.02881111111110313 0 0.0 0.02958888888887925 0 0.0 0.0303666666666547 0 0.0 0.03114444444443082 0 0.0 0.03192222222220566 0 0.0 0.03269999999998238 0 0.0 0.03347777777776181 0 0.0 0.03425555555553778 0 0.0 0.03503333333331842 0 0.0 0.03581111111110207 0 0.0 0.03658888888888301 0 0.0 0.03736666666665853 0 0.0 0.03814444444443977 0 0.0 0.03892222222222191 0 0.04014889945955491 0.03260632408596133 0 0.03439010088941807 0.03385044620348236 0 0.03651859921822667 0.03007190352788604 0 0.04300680111392551 0.03561747139662455 0 0.04327792525406789 0.03000870156666636 0 0.03227954915590074 0.02989221692153592 0 0.0303884440725937 0.03550997256821925 0 0.003950851208223327 0.03563534389234806 0 0.03758830869644736 0.03575778629678455 0 0.02601269391790464 0.03575336300808434 0 0.008906250000000008 0.03571267415404271 0 0.02151174649629949 0.03573210173917969 0 0.01348853211894524 0.03573158192928054 0 0.01749999486195718 0.03579298878275401 0 0.03985422040013994 0.02906351150710034 0 0.003283396657342476 0.02903972618457993 0 0.04397923143528588 0.03282079685248269 0 0.02943808560245111 0.02879370814176535 0 0.02603381783712963 0.02891896390181728 0 0.007375024131728925 0.02895017649357661 0 0.02289032204184131 0.02892553545007324 0 0.0105471027359053 0.02892582300980909 0 0.01976556271499255 0.02892655785355239 0 0.01367191509191321 0.0289267025983159 0 0.01673078170481383 0.02880643094703726 0 0.04593701942497772 0.02876202577466718 0 0.03315986821336849 0.03670505825047632 0 0.08708888519364595 0.02859812329219979 0 0.04892307692307505 0.02860284515864445 0 0.05209716560379655 0.02849377687792536 0 0.05517378961592039 0.02849892465687361 0 0.03127764035006442 0.03274880563405617 0 0.08410608124937585 0.0286327991553911 0 0.08092727447448984 0.02856934483650086 0 0.07781677379216276 0.02857237118322884 0 0.0746740635716911 0.02857470615658323 0 0.07153133839772483 0.02857663112268346 0 0.06838859771388074 0.02857814492716511 0 0.06524584108672013 0.02857924625718263 0 0.05827466972778503 0.02852370237190663 0 0.06210714285713055 0.02861328070176082 0 0.04031024115242172 0.03685965126623171 0 0.03715056212442647 0.03282079327014949 0 0.006299283554916265 0.03702477205197365 0 0.002718182317991793 0.03328910109482289 0 0.03453325555031627 0.02849882590607081 0 0.02374951742619016 0.03702035783122373 0 0.01119276004679811 0
[...]
		<PointData Scalars="T">
			<DataArray type="Float64" Name="T" format="ascii">143.10309455919284 19.999993895126753 36.80578346777929 19.999993895126753 150.8292263507151 73.47552824979722 64.13867896174597 163.2191202946367 165.8281873509682 167.06532957478356 167.6771129805978 167.92180863987696 167.21598949415326 165.6364136794955 164.44676539601627 162.44655363470696 159.63210711431444 156.19714695902084 152.52793334861457 148.22625491565947 142.85390146201297 136.59847526396732 129.1503995550746 150.87912808230308 151.00361294329898 151.20710215346176 151.46056325076287 151.75566844822967 152.06751984028745 152.37656245041572 152.66075618946456 152.90227339130558 153.08045195120962 153.18992767699314 153.21000329237214 153.1332507010211 152.95168891008132 152.65776342566346 152.25076869215292 151.72785158179755 151.08784907334152 150.31138197981883 149.42758471529626 148.40939328519138 147.25986497151072 145.98182460480734 144.58480902737767 143.048385636266 141.37512286514544 139.58394288759175 137.65938740295218 135.59727838008075 133.4227850419732 131.12446106045104 128.7082483910768 126.18343589813914 123.58433255947809 120.90229712777747 118.1660726895014 115.39043429468535 112.60023840356614 109.82470664411997 107.07818659717321 104.37267831317584 101.74060133677982 99.1727691519144 96.68341378408596 94.2946459107061 92.00189247404394 89.80254050462278 87.7206029714682 85.74620955192667 83.89070769604076 82.15636178023176 80.54510589339397 79.08006095248496 77.74829746703426 76.56864747163418 75.5436445347362 74.68618698823671 73.99704768357238 73.80740278618816 73.98749346573591 74.00290007243386 73.85920464612131 73.53137938985675 73.00217546595428 72.26451604740029 71.22085816060952 69.8501311645611 67.82849413278974 59.17207406682706 55.941585902977536 53.26846453610108 50.93118663641289 48.82235551528576 46.904667293756134 45.1276246111346 43.48502474524686 41.9612258213858 40.54066233817922 39.20663118084247 37.967475586467486 35.701213631654795 34.66611273362532 33.69837481728029 32.79476455763345 31.953426906975157 31.161661931777246 30.422640130605064 29.732980362899532 29.08051479322546 28.47799024752656 27.90976357522632 27.374627368763047 26.8769085067371 26.407804475283402 25.969885564622686 25.557261809096314 25.17364601690868 24.817529622504036 24.476358263992008 24.1576874309726 23.858946005660766 23.579536249809422 23.314254312865447 23.06238622944447 22.825676730349407 22.60096350694866 22.38514597837473 22.18415089209151 21.99125634026904 21.803927305419183 21.62621500544231 21.455338400039867 21.289723901188356 21.130324810671738 20.97626476326528 20.82918902898458 20.686423404166383 20.542292217829207 20.401694977645633 20.267050743383002 20.134513569116944 19.999993895126753 19.999993895126753 19.999993895126753 19.999993895126753 19.999993895126753 19.999993895126753 19.999993895126753 20.13674901807444 20.273355727002247 20.415131829768743 20.553429320048604 20.69638234893747 20.84360201424323 20.996539827028595 21.149296526335846 21.30961850254579 21.47805042863001 21.650539165811566 21.832014646854617 22.02161030563752 22.22192581796311 22.430761910233887 22.647665837005643 22.879550855258124 23.125143175058273 23.381423407810804 23.653800552983167 23.944256611477073 24.254520758036243 24.58061261703131 24.928566684991516 25.303700794286687 25.70610040958939 26.12944278821342 26.583888509947435 27.069567061405643 27.592124032049785 28.146961231011673 28.73703344192691 29.37212512719805 30.047136154257196 30.770982218489035 31.545943131216326 32.369931094703524 33.25924079122013 34.20444352744985 35.217403095657424 36.29489563031536 37.45537756862038 38.69138968709468 40.01775481721759 41.432290247266984 42.92700108372204 44.524680678137194 46.22199999249485 48.013611180765 49.88672391717902 51.847763780464334 53.87478676723244 55.95129546398757 58.06295216049946 60.180025240107504 62.30030996987459 64.41054847237953 66.50198683067782 68.58715324489552 70.67042833558743 72.7601186891784 74.87256766504488 77.01312656128856 79.19435896155443 81.41815880903499 83.69702283493908 86.03891504152759 88.45906844221254 90.94811840873355 93.50010008398492 96.12715190227202 98.83207213732999 101.5876382873363 104.39809710864111 107.23714889500079 110.09216907652751 112.92271946532018 115.71064864513485 118.43359601726222 121.06402333920268 123.59825680690398 126.00151476602026 128.26857584816207 130.41527880991825 132.43068670559842 134.29939134407277 136.0225583032406 137.63050247829742 139.09836858079524 140.43478547720844 141.63163067160843 142.69970331465134 143.64055493517452 144.46723650042046 145.1541277668514 145.7269852245676 146.16240406597257 146.49506702279336 146.6977909770547 146.78267694016216 146.76274588317412 146.63140164076063 146.40430316374724 146.08527182462106 145.70196827265198 145.27634213272216 144.82807847248688 144.384457457811 143.96839826624478 143.6127388798011 143.33780339045813 143.16128260327247 145.13415904229518 147.04063184044836 148.8197533040427 150.46162205943997 151.91383580983657 153.16633801265846 154.18271012394445 154.93434719533954 155.41829184592183 155.62917780037048 155.58927189910162 155.33665930204023 154.9007131404233 154.29924375647528 153.57304855440302 152.75043573238693 151.83334810563983 82.91935881308456 100.87642689574135 91.58842287072997 78.17766506084463 72.51419749473722 106.46687622982319 115.8829809756163 156.88069100084456 90.85807247675494 132.64259660957146 159.80388920882595 146.07237626894195 158.61981716141037 153.95752365399443 80.72761545143904 152.45707383873432 74.16732624093163 116.38871529072092 129.979347587329 155.79096381111347 139.88922618406644 156.62870208377714 147.29469214595608 155.4679232215043 151.9694073108284 63.717617808800036 104.72457166059519 20.520002084010603 54.656746418986884 46.43869407243001 40.291459901030905 113.02565633713375 21.088453679903534 21.775980878697194 22.573878510238668 23.555039847424847 24.792797966027152 26.385543729304054 28.45110539261795 35.520515680566284 31.12949584980747 83.84827571093957 91.49000808623366 156.49851182021015 157.24430398134385 96.51030633742513 137.6464761689216 157.24239738749574 122.50544985696922 143.06253138366537 163.00559457362806 161.06619568703812 126.6990425063623 99.7768898790973 76.12916245819804 96.30154612360145 153.79312559932083 147.56649837711447 154.18233033011236 160.11072615004616 153.9398613349646 85.481688345727 74.14644186257398 155.22164625782852 151.31352473526215 82.26804461492102 74.67025792130477 86.21382926631867 77.3318528129562 107.4164744929972 111.25670290516183 69.2519219226971 68.26862907344577 33.17027822160326 115.96103755963128 79.659071105579 109.52190780514532 88.41429699496658 96.93766823708347 155.9630287854259 156.22631965971127 154.44580366388794 154.87476776249267 141.84390072647608 136.68813442009824 164.45493424637175 151.0697346428532 163.29725766149815 130.49431032633672 157.67908359326947 86.83555943081244 126.43867793532125 121.6341268636393 158.69143887343083 148.34643732966097 138.74162646002534 160.4640897817455 147.57108319178036 160.50780802277654 153.70509044770594 158.34602377200466 150.45713363526522 131.55693802298163 152.68860441547338 139.94688997665216 152.2140657475994 146.1252756347885 150.06915283399493 51.05207186406429 43.72314397305463 37.84539887547148 21.407886334763205 22.143946948671125 23.023107511573986 33.732330275117974 24.118035949955928 25.5124094529053 27.31779234973714 29.659297257251854 21.405256386526197 22.126036519943153 23.010195046300094 58.095677952436425 24.10250502357165 25.492714339494032 50.151895236424586 27.295823749047948 29.664410670402074 43.31469282128548 37.82597474550584 59.8103591930626 20.785776632612613 78.31044082053288 20.793379829199406 160.24213291563075 80.74161091755056 121.21065299341002 90.45463040598548 20.294951487073057 20.29148039645778 80.21281594511179 96.6590101587229 99.59948527431322 105.45763083636906 152.23702195584858 148.72164811945856 156.4933686350916 72.37365054145913 100.61364887511519 76.66629710639639 116.48677869077791 155.5830530530205 150.34761877716093 111.57049498931761 159.45862920959433 164.76617110836023 134.91758413932587 160.66488413878747 144.62387764755812 161.92676677850238 152.22788673147554 160.82556566334256 157.68261482169365 31.850647080589695 101.45627988351471 63.779003031467695 91.74140840685492 68.14882696367111 125.24993518746196 125.65169660825313 156.308478082013 151.36217243700165 155.80898981523342 135.0595440790298 73.64330380366962 151.3098667545251 142.0940116710794 150.18497094889833 147.10044645122372 86.8322232550719 142.14631265764277 159.19335552779845 95.77856743116132 148.7066769187875 165.4478272058564 85.17768478642932 74.75620368718404 93.2538471035763 121.31476383138656 105.21413172133592 158.0262545452211 31.62908258742081 34.64892409521279 137.881532218724 159.8449855937968 55.66407273293159 82.346667897665 46.93927597362788 40.603756885194805 111.4765863144348 157.9186905314738 142.80226958534027 165.84085940959622 76.17190112480795 109.77801647536565 45.73376384818249 21.04859582464719 21.71606632857759 22.600415731867752 22.508133570723594 23.470565346911705 53.55615057693539 24.68231757541261 26.241223785146357 28.26341155590325 35.747673994587586 21.85219133186214 23.593857697754025 80.84764368157474 21.096451911011062 39.95538104667491 110.35376171745364 24.850690666514982 114.52214607889486 92.5322570515528 26.465793477091648 87.141111844546 28.54364420867106 77.55785423931505 156.07616781498768 20.543736827801407 20.53735490901748 64.70510869449318 74.91056455124829 154.362743215904 143.74544873244477 152.9787128821279 100.94821577072369 133.42720476517854 132.5822233290455 154.80731202756633 163.37118425057002 126.88440653999696 76.35178324966377 76.13235313160705 152.64884879668105 69.48960447705721 154.6510237484111 153.2223307784226 70.36600823262461 157.2230175021719 147.30568649881621 94.25821729167929 156.24944274036145 163.80922117233104 85.27586583370488 120.50200565687047 137.42717604502593 117.61955623655906 92.22968868209121 154.79196887029866 104.4977664715923 151.2394277931716 155.6325184630245 145.2079675787473 153.96505853436625 99.98983233439571 120.40140472442002 146.09686708352697 161.66222091504946 96.56316297486015 103.8575757350748 157.61558163516523 92.6752725408278 77.9046919768826 130.88678812458917 116.84875500337523 120.66134093875085 137.7017617361402 162.37651749019113 162.154320544334 158.8776728635637 161.95311373852192 71.96980585543028 30.58006549576998 108.24966536309073 150.62678362080123 155.15789348656372 150.44803729225654 160.21985024632565 81.18541601769711 96.26416660931831 128.35853819390735 157.33681065890812 154.95523440364232 86.13148238151271 32.388185034421454 20.19670159216601 153.25600120393312 100.87352904386377 133.6342832572197 155.95302700628366 142.54316146034867 156.1728774695009 149.13828133055972 154.17339079137972 79.54126859087002 153.7462659576289 115.22167569127335 149.64319226859715 154.3332908320833 121.80427422641601 30.453411899583333 158.78015246102603 95.6823542087919 77.56861125137365 36.27606756259812 157.60199056585546 75.80180999281869 82.59269641081445 103.2648699475974 88.3958211203561 148.6127554900803 157.06439543809012 112.04798269860774 147.996678364193 157.14591327895076 60.37537541376662 74.77854429538746 141.38729297992526 60.086831190193415 149.93647128181203 82.83791295257865 83.71722960840282 146.08534304541394 89.39552304845748 76.218151223362 83.88765706244399 72.92996224308033 155.32895478510332 153.91187174450405 51.492192788852996 20.73106980177051 89.36760474141681 44.24910502557394 34.17655091025257 82.73532253435421 146.5970717990516 38.60084347465983 80.3368748937534 83.9272026536938 134.53670349085917 66.28444231666103 21.320601654247476 22.04046111733681 22.893695773141243 156.3205708081486 23.955280712934155 25.3047051728328 27.04926065697404 29.311740687471733 88.53521150247009 127.22951028955778 80.21903266204941 154.73841436760952 107.15214099130533 72.85129534012025 89.23233386506666 161.15008661328494 111.8489739952695 94.14955056917657 71.59463264602181 86.54104068048403 76.2631733393572 66.18289197904778 120.95508071844831 139.17433764767435 166.73067666386044 153.91459596977924 165.78788034180172 107.5629983480904 112.80636081576928 32.542184677916126 20.16464944827867 130.72280975995935 20.16549398454209 127.21482121189624 144.4328354142829 27.727993872129545 25.820710070035606 70.86073525954224 24.347998285369705 149.25961785716794 23.195489381685626 138.7634871636885 22.281612174034443 149.78734444912982 155.28553394024235 127.88341423623058 130.7455866713397 148.18336300595675 135.86041831526325 149.55379125701552 81.99609811012103 66.52781292345179 105.6781498737689 104.71127478718414 21.558602611655964 154.52423720986147 121.74032216385802 142.36649449753068 141.5647461776445 164.04982088373558 151.13919083912285 163.70593175473982 157.41391927840084 161.38926161813202 147.86238930514142 41.749396799047 150.7908387408113 146.78134799396483 79.72064923690442 48.30287933833634 153.2925479106119 32.62753720628822 89.29066958890078 52.07988160151876 48.373417162515416 44.3802364093755 36.56871358408425 41.663513467962325 34.21365296674336 38.652966778999065 111.2624958160741 74.37216898917139 126.76099859681104 111.48379303781125 21.26179469206111 21.562315066907114 21.96687637625517 22.322408377619304 22.80382711486836 23.238583676673613 23.839706450405732 24.387388046220416 25.152600553618278 25.857782655384618 26.85044137204782 27.765497577241153 29.03963680498574 117.21291763407561 99.8971380480372 55.82443998318079 139.90126365004147 26.888752882074417 85.69310833599268 156.5349785629106 153.66799889168794 38.39839262566161 153.32002938713714 25.173765223142148 152.52229248317374 29.190177374272782 20.93563546816413 89.28753044144094 57.739890650981614 21.256220881138756 30.23204740505139 27.7558626024276 25.85047950554964 24.37714539408136 23.22927405603725 22.31012450662737 78.95183080808464 21.569539344569705 23.849417450090687 158.82914740049358 124.68582325635994 51.39381993635452 44.206000691761176 152.86663413980045 20.924926818388478 21.97449385056051 36.84272772629138 73.6568250771428 108.11524480021657 22.805727795145902 155.829290128039 79.30771195693755 99.84540806956907 154.70605487843363 145.13203323518695 42.003212442766724 48.69577065943155 137.74997331078222 157.42010194451538 145.9459509950509 156.949480249064 154.41145330963622 152.09648996299464 161.90326926811252 61.48349335640987 149.03968674006558 157.30562815978584 20.378638765191784 20.376760970925105 157.90324017891743 134.91472350357947 153.72977629845875 62.33923671411111 142.79501094014128 153.04279334063546 148.29813763371277 22.400936494908283 23.343267287265682 24.522767660857273 97.13843556627505 88.80427446663971 26.03556329544665 27.995675782765883 158.0354662411683 96.78721764942928 21.624191742735714 41.46074125281965 76.72900559039105 134.1691130663876 158.26994819897038 47.957690467840735 143.60056684695374 158.74032939175152 150.57698963208804 157.1358108087731 156.4938569580051 150.86725346210682 20.690589891440766 116.02236988904527 150.37523500435407 69.55422464648954 57.61958362960581 20.691541128678644 161.68119209181413 30.41463525981987 36.672609666772644 33.693062301070256 102.47526795452394 90.91039263452276 152.85278367937738 162.58150805643655 85.14636446618958 129.32528833633222 167.1163251354397 147.1784379822246 138.50606593448725 20.905784615736444 153.51349069653696 145.40386348893807 151.9963414526729 149.32142677526878 20.98553245915647 151.69209644932113 130.61399890694477 94.29227705441716 78.22417442364947 155.71727189717663 116.41167087648176 56.72072397362566 109.39537391779048 34.62214180816444 147.9336406159595 160.5943232275547 52.648468774201206 45.05825536276607 123.42258037575581 161.442363908886 39.178765413406225 158.22566563233977 131.26272770898711 154.4334425982551 77.99299209441605 21.237813051960398 21.942940681281563 22.782188923873072 23.813758739350504 25.122141351158792 20.363855931325894 26.81281534440959 29.003587160802695 143.84040072923273 156.939998152749 99.6968758449835 103.58641240171612 105.44180651479455 160.92342617358764 93.27937439425463 52.76057880411632 70.50452686486862 126.27734399046236 76.56905685656142 29.844404739806343 156.38544869241855 78.68706161605184 114.18995504506398 98.20122913958141 165.78153809008236 74.02758930627279 156.40122829945204 21.223911336619068 93.71978916691826 156.3606821887068 159.76364238213847 20.642876647274772 133.83212166473942 137.36825563354532 164.29104516300848 148.1863454428811 165.56549754944365 155.44198666352065 164.07912696487284 161.2060470829536 20.60846781022641 149.55482002220845 166.71564069053406 45.31394446910181 20.43911978682875 96.98188676036277 97.75208344507644 124.1676895519365 62.402588462669314 84.26169860863132 144.64618669187374 167.0115466279449 158.43137536903748 154.53906582146575 151.68439300810937 21.956837972887396 147.94687463802902 159.06840603745658 108.10270087297482 66.93025016100556 124.66159987856206 20.147038187542528 117.31455313403843 80.05639898064499 98.77927587759784 83.42091986135883 20.153864519538683 39.44818264701178 158.9272365789167 139.2679816784503 98.82490917011427 132.4268183401024 155.58600237994256 22.729473491012882 31.82853902921456 156.8731687566347 23.749361583799846 31.165598211824314 72.16468074597279 160.4659314747675 25.040990204632102 26.707452437568794 152.44091065858626 28.868353286482133 91.3379645038164 130.72865490515144 77.82308157677126 87.05874300305645 156.3674253133174 163.0807241197989 146.3625349192006 102.69902779122224 98.95935403958993 103.89651924694579 156.15224030525476 151.85403833214906 118.9404030638825 122.6471370824769 161.1236096234085 156.33890461188432 76.01543508458461 142.39403144255246 162.22668854475305 150.78142190656442 161.7676051556517 156.6979790724693 159.1306342841059 137.76672858385035 161.49849277136644 160.2477149536004 154.0609066846035 147.23997069368207 161.94163202379443 99.92841742334124 153.1652618144488 117.3488744236827 165.04104484418102 125.16085959618461 158.55467294753058 149.07619470285994 27.77319957707344 25.862671657779988 24.3881806747592 23.238856464896962 22.319174470847848 21.544270634224667 68.0358024754033 159.93618567225917 160.17842995840334 31.14948811819205 130.50401364756155 95.32556785092308 135.09399732388079 153.82881559241818 87.97265350781781 113.20305905501714 141.41938585869008 154.30207946283468 160.69543355112282 141.25206148800578 36.90734712460074 162.7382051039454 164.02881622525152 130.7291161430662 145.51065927723513 42.15389815924104 48.966048034099906 155.46938900382756 149.0234479521428 110.68034279929205 74.33010608123718 155.83553539572836 152.44417607208663 151.9697887304243 71.86170569477163 120.97348235393048 80.05574163492156 62.152360245835666 147.563839836325 148.4365943715216 145.1730071039465 111.87596853876018 82.93385535615477 159.83846411116778 138.77313636198545 104.05685270163077 94.63587313096296 80.06585265637085 73.97619618700094 90.74133587368112 135.96122481900363 160.61222429452744 75.30142665339736 151.31558415027476 165.13410095772943 159.26288096877562 165.72320306753474 145.69767259859242 164.7972926855915 117.10453427269684 56.04343955944347 57.95425261910797 75.77329881314863 164.63997264030863 152.36334771422162 32.73207663011175 74.14088332144424 154.39231343680044 65.77553403642504 149.22560280014181 153.5293203688799 157.71370681438202 148.56140263789553 158.64708626052442 140.85504024508865 120.07504125597998 153.73794447114406 124.67049681055688 101.71540410953742 70.3492024727874 102.43083911225169 141.08039052745556 163.6820845611619 93.43647827083606 103.92123616424635 35.311345780626965 133.7285688889835 31.08085146971197 154.73109599296896 164.73486688302816 34.892734660789664 88.99140915313926 153.3678084235651 148.86121102637318 93.0440353711258 92.63588187827885 118.4232327521952 149.7820340183665 7